# vtk DataFile Version 3.0
Example of a simple mesh with a field variable
ASCII
DATASET UNSTRUCTURED_GRID
POINTS 5 float
0.0 0.0 0.0
1.0 0.0 0.0
0.0 1.0 0.0
0.0 0.0 1.0
0.0 0.0 -1.0

CELLS 2 10
4 0 1 2 3
4 0 2 1 4

CELL_TYPES 2
10
10

POINT_DATA 5
SCALARS height float
LOOKUP_TABLE default
0.0
0.0
0.0
1.0
-1.0
