# vtk DataFile Version 2.0
Example of Unstructured Grid of Many Cell Types from https://examples.vtk.org/site/VTKFileFormats/
ASCII
DATASET UNSTRUCTURED_GRID

POINTS 27 float
0 0 0  1 0 0  2 0 0  0 1 0  1 1 0  2 1 0
0 0 1  1 0 1  2 0 1  0 1 1  1 1 1  2 1 1
0 1 2  1 1 2  2 1 2  0 1 3  1 1 3  2 1 3
0 1 4  1 1 4  2 1 4  0 1 5  1 1 5  2 1 5
0 1 6  1 1 6  2 1 6

CELLS 11 60
8 0 1 4 3 6 7 10 9
8 1 2 4 5 7 8 10 11
4 6 10 9 12
4 11 14 10 13
6 15 16 17 14 13 12
6 18 15 19 16 20 17
4 22 23 20 19
3 21 22 18
3 22 19 18
2 26 25
1 24

CELL_TYPES 11
12
11
10
8
7
6
9
5
4
3
1

POINT_DATA 27
SCALARS scalars float 1
LOOKUP_TABLE default
0.0 1.0 2.0 3.0 4.0 5.0
6.0 7.0 8.0 9.0 10.0 11.0
12.0 13.0 14.0 15.0 16.0 17.0
18.0 19.0 20.0 21.0 22.0 23.0
24.0 25.0 26.0

VECTORS vectors float
1 0 0  1 1 0  0 2 0  1 0 0  1 1 0  0 2 0
1 0 0  1 1 0  0 2 0  1 0 0  1 1 0  0 2 0
0 0 1  0 0 1  0 0 1  0 0 1  0 0 1  0 0 1
0 0 1  0 0 1  0 0 1  0 0 1  0 0 1  0 0 1
0 0 1  0 0 1  0 0 1

CELL_DATA 11
SCALARS scalars float 1
LOOKUP_TABLE CellColors
0.0 1.0 2.0 3.0 4.0 5.0
6.0 7.0 8.0 9.0 10.0

LOOKUP_TABLE CellColors 11
.4 .4 1 1
.4 1 .4 1
.4 1 1 1
1 .4 .4 1
1 .4 1 1
1 1 .4 1
1 1 1 1
1 .5 .5 1
.5 1 .5 1
.5 .5 .5 1
1 .5 .4 1
